[
    {
        "name": "Hydrogen", 
        "symbol": "H",
        "atomic_number": 1,
        "atomic_weight": 1.008,
        "boiling_point": 20.271,
        "melting_point: 13.99
        

    }

]
